 Gaussian 09, Revision A.02,
 Gaussian 09:  IA32W-G09RevA.02 11-Jun-2009

 ----------------------------------------------------------------------
 # opt=(tight,maxcycles=1500) freq b3lyp/6-311++g nosymm pop=(full,nbo)
  polar int=ultrafine scf=xqc
 ----------------------------------------------------------------------

 -----
 Title
 -----
 Symbolic Z-matrix:
 Charge =  0 Multiplicity = 7

 SCF Done:  E(UB3LYP) =  -2765.41723909     A.U. after   13 cycles
 SCF Done:  E(UB3LYP) =  -2765.41894967     A.U. after   10 cycles
 SCF Done:  E(UB3LYP) =  -2765.41940629     A.U. after   10 cycles
 SCF Done:  E(UB3LYP) =  -2765.41940631     A.U. after    7 cycles
 Optimization completed.
    -- Stationary point found.
 Normal termination of Gaussian 09 at Sun Dec 06 20:42:07 2020.

 --------------------------------------------------------------------
 #N Geom=AllCheck Guess=TCheck SCRF=Check GenChk UB3LYP/6-311++G Freq
 --------------------------------------------------------------------

 Title
 -----
 Redundant internal coordinates taken from checkpoint file:
 .\gxx.chk
 Charge =  0 Multiplicity = 7

                          Input orientation:
 ---------------------------------------------------------------------
 Center     Atomic      Atomic             Coordinates (Angstroms)
 Number     Number       Type             X           Y           Z
 ---------------------------------------------------------------------
      1         27           0        0.000000    0.000000   -0.044105
      2         27           0        0.000000    0.000000    2.044105
 ---------------------------------------------------------------------

 SCF Done:  E(UB3LYP) =  -2765.41940631     A.U. after    2 cycles

 Alpha  occ. eigenvalues -- -277.56045-277.56045 -32.89191 -32.89190 -28.55070
 Alpha  occ. eigenvalues --  -28.55069 -28.54470 -28.54470 -28.54470 -28.54470
 Alpha  occ. eigenvalues --   -3.83960  -3.83654  -2.54001  -2.52296  -2.51970
 Alpha  occ. eigenvalues --   -2.51970  -2.51781  -2.51781  -0.41925  -0.40234
 Alpha  occ. eigenvalues --   -0.40234  -0.39057  -0.37975  -0.35430  -0.35123
 Alpha  occ. eigenvalues --   -0.35123  -0.34474  -0.34237  -0.26539  -0.16250
 Alpha virt. eigenvalues --   -0.05818  -0.05818  -0.03179   0.01322   0.01460
 Alpha virt. eigenvalues --    0.02359   0.02359   0.10204   0.13714   0.15423
 Alpha virt. eigenvalues --    0.15423   0.18692   0.20008   0.20939   0.21336

  Beta  occ. eigenvalues -- -277.55983-277.55983 -32.83270 -32.83269 -28.50102
  Beta  occ. eigenvalues --  -28.50099 -28.49735 -28.49735 -28.49733 -28.49733
  Beta  occ. eigenvalues --   -3.70715  -3.70348  -2.39848  -2.38223  -2.38223
  Beta  occ. eigenvalues --   -2.37923  -2.37923  -2.37665  -0.29673  -0.29501
  Beta  occ. eigenvalues --   -0.28194  -0.25644  -0.25644  -0.22609
  Beta virt. eigenvalues --   -0.13573  -0.13162  -0.13162  -0.10265  -0.08405
  Beta virt. eigenvalues --   -0.07985  -0.04508  -0.04508  -0.01476   0.02014
  Beta virt. eigenvalues --    0.02408   0.04129   0.04129   0.11316   0.14269

 Mulliken atomic charges:
              1
     1  Co   0.000000
     2  Co   0.000000
 Sum of Mulliken atomic charges =   0.00000

 Dipole moment (field-independent basis, Debye):
    X=              0.0000    Y=              0.0000    Z=              0.0000  Tot=              0.0000
 Quadrupole moment (field-independent basis, Debye-Ang):
   XX=            -31.2596   YY=            -31.2596   ZZ=            -32.4842
   XY=              0.0000   XZ=              0.0000   YZ=              0.0000

  Exact polarizability:  74.823   0.000  74.823   0.000   0.000 155.129
 Approx polarizability: 110.906   0.000 110.906   0.000   0.000 389.812

 Summary of Natural Population Analysis:

                                       Natural Population
                Natural  -----------------------------------------------
    Atom  No    Charge         Core      Valence    Rydberg      Total
 -----------------------------------------------------------------------
     Co    1    1.50000      8.99758     2.99252    0.00990    12.00000
     Co    2    1.50000      8.99758     2.99252    0.00990    12.00000
 =======================================================================
   * Total *    3.00000     17.99516     5.98505    0.01980    24.00000

                     1
                     A
 Frequencies --   347.2473
 Red. masses --    58.9332
 Frc consts  --     4.1869
 IR Inten    --     0.0000

 - Thermochemistry -
 -------------------
 Temperature   298.150 Kelvin.  Pressure   1.00000 Atm.
 Atom     1 has atomic number 27 and mass  58.93320

 Molecular mass:   117.86640 amu.
 Principal axes and moments of inertia in atomic units:
                           1         2         3
     Eigenvalues --     0.00000 458.85559 458.85559
           X            0.00000   0.00000   1.00000
           Y            0.00000   1.00000   0.00000
           Z            1.00000   0.00000   0.00000
 This molecule is a prolate symmetric top.
 Rotational symmetry number  2.
 Warning -- assumption of classical behavior for rotation
           may cause significant error
 Rotational temperature (Kelvin)      0.18876
 Rotational constant (GHZ):           3.933136
 Zero-point vibrational energy       2077.0 (Joules/Mol)
                                    0.49641 (Kcal/Mol)
 Warning -- explicit consideration of   1 degrees of freedom as
           vibrations may cause significant error
 Vibrational temperatures:    499.61
          (Kelvin)

 Zero-point correction=                           0.000791 (Hartree/Particle)
 Thermal correction to Energy=                    0.003516
 Thermal correction to Enthalpy=                  0.004460
 Thermal correction to Gibbs Free Energy=        -0.024285
 Sum of electronic and zero-point Energies=          -2765.418615
 Sum of electronic and thermal Energies=             -2765.415890
 Sum of electronic and thermal Enthalpies=           -2765.414946
 Sum of electronic and thermal Free Energies=        -2765.443691

                     E (Thermal)             CV                S
                      KCal/Mol        Cal/Mol-Kelvin    Cal/Mol-Kelvin
 Total                    2.206              6.549             60.499
 Electronic               0.000              0.000              3.867
 Translational            0.889              2.981             40.208
 Rotational               0.592              1.987             15.245
 Vibrational              0.725              1.581              1.179
 Vibration     1          0.725              1.581              1.179

 Optimization completed.
    -- Stationary point found.
 Normal termination of Gaussian 09 at Sun Dec 06 20:43:36 2020.
