 Gaussian 09, Revision A.02,
 Gaussian 09:  IA32W-G09RevA.02 11-Jun-2009

 ----------------------------------------------------------------------
 # opt=(tight,maxcycles=1500) freq b3lyp/6-311++g nosymm pop=(full,nbo)
  polar int=ultrafine scf=xqc
 ----------------------------------------------------------------------

 -----
 Title
 -----
 Symbolic Z-matrix:
 Charge =  0 Multiplicity = 3

 SCF Done:  E(UB3LYP) =  -2765.33424180     A.U. after   13 cycles
 SCF Done:  E(UB3LYP) =  -2765.33745981     A.U. after   10 cycles
 SCF Done:  E(UB3LYP) =  -2765.33840201     A.U. after   12 cycles
 SCF Done:  E(UB3LYP) =  -2765.33840226     A.U. after   12 cycles
 Optimization completed.
    -- Stationary point found.
 Normal termination of Gaussian 09 at Sun Dec 06 20:33:04 2020.

 --------------------------------------------------------------------
 #N Geom=AllCheck Guess=TCheck SCRF=Check GenChk UB3LYP/6-311++G Freq
 --------------------------------------------------------------------

 Title
 -----
 Redundant internal coordinates taken from checkpoint file:
 .\gxx.chk
 Charge =  0 Multiplicity = 3

                          Input orientation:
 ---------------------------------------------------------------------
 Center     Atomic      Atomic             Coordinates (Angstroms)
 Number     Number       Type             X           Y           Z
 ---------------------------------------------------------------------
      1         27           0        0.000000    0.000000    0.054881
      2         27           0        0.000000    0.000000    1.945119
 ---------------------------------------------------------------------

 SCF Done:  E(UB3LYP) =  -2765.33840226     A.U. after    1 cycles

 Alpha  occ. eigenvalues -- -277.47473-277.47473 -32.78052 -32.78051 -28.47254
 Alpha  occ. eigenvalues --  -28.47251 -28.42318 -28.42318 -28.42317 -28.42317
 Alpha  occ. eigenvalues --   -3.71475  -3.70501  -2.47740  -2.43522  -2.36576
 Alpha  occ. eigenvalues --   -2.36576  -2.36025  -2.36025  -0.33548  -0.33548
 Alpha  occ. eigenvalues --   -0.30154  -0.25120  -0.25120  -0.22799  -0.22799
 Alpha  occ. eigenvalues --   -0.20585  -0.20274  -0.20274
 Alpha virt. eigenvalues --   -0.12832  -0.08826  -0.02931  -0.02931  -0.00335
 Alpha virt. eigenvalues --    0.02105   0.02747   0.05023   0.05023   0.11636
 Alpha virt. eigenvalues --    0.16158   0.18493   0.18493   0.21182   0.22432

  Beta  occ. eigenvalues -- -277.47475-277.47475 -32.75576 -32.75575 -28.44582
  Beta  occ. eigenvalues --  -28.44577 -28.40630 -28.40630 -28.40628 -28.40628
  Beta  occ. eigenvalues --   -3.65969  -3.64955  -2.40211  -2.35587  -2.31854
  Beta  occ. eigenvalues --   -2.31854  -2.31189  -2.31189  -0.28580  -0.23075
  Beta  occ. eigenvalues --   -0.23075  -0.20362  -0.20262  -0.20262  -0.17462
  Beta  occ. eigenvalues --   -0.17462
  Beta virt. eigenvalues --   -0.10804  -0.07986  -0.07578  -0.07578  -0.02717
  Beta virt. eigenvalues --   -0.02717  -0.00355   0.02210   0.02931   0.05754
  Beta virt. eigenvalues --    0.05754   0.11752   0.16191   0.18883   0.18883

 Mulliken atomic charges:
              1
     1  Co   0.000000
     2  Co   0.000000
 Sum of Mulliken atomic charges =   0.00000

 Dipole moment (field-independent basis, Debye):
    X=              0.0000    Y=              0.0000    Z=              0.0000  Tot=              0.0000
 Quadrupole moment (field-independent basis, Debye-Ang):
   XX=            -30.6730   YY=            -30.6730   ZZ=            -22.0024
   XY=              0.0000   XZ=              0.0000   YZ=              0.0000

  Exact polarizability:  67.999   0.000  67.999   0.000   0.000 108.716
 Approx polarizability: 104.839   0.000 104.839   0.000   0.000 343.945

 Summary of Natural Population Analysis:

                                       Natural Population
                Natural  -----------------------------------------------
    Atom  No    Charge         Core      Valence    Rydberg      Total
 -----------------------------------------------------------------------
     Co    1    0.50000      8.99728     4.00050    0.00223    13.00000
     Co    2    0.50000      8.99728     4.00050    0.00223    13.00000
 =======================================================================
   * Total *    1.00000     17.99455     8.00099    0.00445    26.00000

                     1
                     A
 Frequencies --   456.2081
 Red. masses --    58.9332
 Frc consts  --     7.2266
 IR Inten    --     0.0000

 - Thermochemistry -
 -------------------
 Temperature   298.150 Kelvin.  Pressure   1.00000 Atm.
 Atom     1 has atomic number 27 and mass  58.93320

 Molecular mass:   117.86640 amu.
 Principal axes and moments of inertia in atomic units:
                           1         2         3
     Eigenvalues --     0.00000 375.97613 375.97613
           X            0.00000   0.00000   1.00000
           Y            0.00000   1.00000   0.00000
           Z            1.00000   0.00000   0.00000
 This molecule is a prolate symmetric top.
 Rotational symmetry number  2.
 Rotational temperature (Kelvin)      0.23037
 Rotational constant (GHZ):           4.800148
 Zero-point vibrational energy       2728.7 (Joules/Mol)
                                    0.65218 (Kcal/Mol)
 Warning -- explicit consideration of   1 degrees of freedom as
           vibrations may cause significant error
 Vibrational temperatures:    656.38
          (Kelvin)

 Zero-point correction=                           0.001039 (Hartree/Particle)
 Thermal correction to Energy=                    0.003658
 Thermal correction to Enthalpy=                  0.004603
 Thermal correction to Gibbs Free Energy=        -0.022964
 Sum of electronic and zero-point Energies=          -2765.337363
 Sum of electronic and thermal Energies=             -2765.334744
 Sum of electronic and thermal Enthalpies=           -2765.333800
 Sum of electronic and thermal Free Energies=        -2765.361366

                     E (Thermal)             CV                S
                      KCal/Mol        Cal/Mol-Kelvin    Cal/Mol-Kelvin
 Total                    2.296              6.315             58.018
 Electronic               0.000              0.000              2.183
 Translational            0.889              2.981             40.208
 Rotational               0.592              1.987             14.849
 Vibrational              0.814              1.347              0.777
 Vibration     1          0.814              1.347              0.777

 Optimization completed.
    -- Stationary point found.
 Normal termination of Gaussian 09 at Sun Dec 06 20:34:37 2020.
