 Gaussian 09, Revision A.02,
 Gaussian 09:  IA32W-G09RevA.02 11-Jun-2009

 ----------------------------------------------------------------------
 # opt=(tight,maxcycles=1500) freq b3lyp/6-311++g nosymm pop=(full,nbo)
  polar int=ultrafine scf=xqc
 ----------------------------------------------------------------------

 -----
 Title
 -----
 Symbolic Z-matrix:
 Charge =  0 Multiplicity = 5

 SCF Done:  E(UB3LYP) =  -2765.41193487     A.U. after   15 cycles
 SCF Done:  E(UB3LYP) =  -2765.41258024     A.U. after   13 cycles
 SCF Done:  E(UB3LYP) =  -2765.41273120     A.U. after   10 cycles
 SCF Done:  E(UB3LYP) =  -2765.41273120     A.U. after    9 cycles
 Optimization completed.
    -- Stationary point found.
 Normal termination of Gaussian 09 at Sun Dec 06 20:37:40 2020.

 --------------------------------------------------------------------
 #N Geom=AllCheck Guess=TCheck SCRF=Check GenChk UB3LYP/6-311++G Freq
 --------------------------------------------------------------------

 Title
 -----
 Redundant internal coordinates taken from checkpoint file:
 .\gxx.chk
 Charge =  0 Multiplicity = 5

                          Input orientation:
 ---------------------------------------------------------------------
 Center     Atomic      Atomic             Coordinates (Angstroms)
 Number     Number       Type             X           Y           Z
 ---------------------------------------------------------------------
      1         27           0        0.000000    0.000000    0.024175
      2         27           0        0.000000    0.000000    1.975825
 ---------------------------------------------------------------------

 SCF Done:  E(UB3LYP) =  -2765.41273120     A.U. after    1 cycles

 Alpha  occ. eigenvalues -- -277.46833-277.46833 -32.78550 -32.78549 -28.45648
 Alpha  occ. eigenvalues --  -28.45647 -28.43546 -28.43546 -28.43546 -28.43546
 Alpha  occ. eigenvalues --   -3.73434  -3.72784  -2.46543  -2.43446  -2.40382
 Alpha  occ. eigenvalues --   -2.40382  -2.40005  -2.40005  -0.34692  -0.32631
 Alpha  occ. eigenvalues --   -0.32631  -0.27507  -0.25629  -0.25625  -0.25412
 Alpha  occ. eigenvalues --   -0.25412  -0.25112  -0.23646  -0.21134
 Alpha virt. eigenvalues --   -0.09143  -0.03085  -0.03085  -0.00402   0.02058
 Alpha virt. eigenvalues --    0.02664   0.04755   0.04755   0.11406   0.16136
 Alpha virt. eigenvalues --    0.18235   0.18235   0.21069   0.22167   0.24518

  Beta  occ. eigenvalues -- -277.46834-277.46834 -32.73731 -32.73730 -28.41086
  Beta  occ. eigenvalues --  -28.41082 -28.39940 -28.39940 -28.39937 -28.39937
  Beta  occ. eigenvalues --   -3.62728  -3.62005  -2.33479  -2.30177  -2.30177
  Beta  occ. eigenvalues --   -2.29746  -2.29617  -2.29617  -0.24218  -0.20883
  Beta  occ. eigenvalues --   -0.20113  -0.20113  -0.18889  -0.18502  -0.13661
  Beta virt. eigenvalues --   -0.08058  -0.05910  -0.05734  -0.05587  -0.05587
  Beta virt. eigenvalues --   -0.02717  -0.02717  -0.00359   0.02255   0.02968
  Beta virt. eigenvalues --    0.05807   0.05807   0.11907   0.16542   0.18984

 Mulliken atomic charges:
              1
     1  Co   0.000000
     2  Co   0.000000
 Sum of Mulliken atomic charges =   0.00000

 Dipole moment (field-independent basis, Debye):
    X=              0.0000    Y=              0.0000    Z=              0.0000  Tot=              0.0000
 Quadrupole moment (field-independent basis, Debye-Ang):
   XX=            -30.7309   YY=            -30.7309   ZZ=            -22.0138
   XY=              0.0000   XZ=              0.0000   YZ=              0.0000

  Exact polarizability:  71.489   0.000  71.489   0.000   0.000 109.803
 Approx polarizability: 107.845   0.000 107.845   0.000   0.000 400.756

 Summary of Natural Population Analysis:

                                       Natural Population
                Natural  -----------------------------------------------
    Atom  No    Charge         Core      Valence    Rydberg      Total
 -----------------------------------------------------------------------
     Co    1    1.00000      8.99703     3.49504    0.00793    12.50000
     Co    2    1.00000      8.99703     3.49504    0.00793    12.50000
 =======================================================================
   * Total *    2.00000     17.99405     6.99008    0.01587    25.00000

                     1
                     A
 Frequencies --   430.2384
 Red. masses --    58.9332
 Frc consts  --     6.4273
 IR Inten    --     0.0000

 - Thermochemistry -
 -------------------
 Temperature   298.150 Kelvin.  Pressure   1.00000 Atm.
 Atom     1 has atomic number 27 and mass  58.93320

 Molecular mass:   117.86640 amu.
 Principal axes and moments of inertia in atomic units:
                           1         2         3
     Eigenvalues --     0.00000 400.80375 400.80375
           X            0.00000   0.00000   1.00000
           Y            0.00000   1.00000   0.00000
           Z            1.00000   0.00000   0.00000
 This molecule is a prolate symmetric top.
 Rotational symmetry number  2.
 Rotational temperature (Kelvin)      0.21610
 Rotational constant (GHZ):           4.502805
 Zero-point vibrational energy       2573.4 (Joules/Mol)
                                    0.61506 (Kcal/Mol)
 Warning -- explicit consideration of   1 degrees of freedom as
           vibrations may cause significant error
 Vibrational temperatures:    619.02
          (Kelvin)

 Zero-point correction=                           0.000980 (Hartree/Particle)
 Thermal correction to Energy=                    0.003622
 Thermal correction to Enthalpy=                  0.004566
 Thermal correction to Gibbs Free Energy=        -0.023581
 Sum of electronic and zero-point Energies=          -2765.411751
 Sum of electronic and thermal Energies=             -2765.409109
 Sum of electronic and thermal Enthalpies=           -2765.408165
 Sum of electronic and thermal Free Energies=        -2765.436312

                     E (Thermal)             CV                S
                      KCal/Mol        Cal/Mol-Kelvin    Cal/Mol-Kelvin
 Total                    2.273              6.372             59.241
 Electronic               0.000              0.000              3.198
 Translational            0.889              2.981             40.208
 Rotational               0.592              1.987             14.977
 Vibrational              0.791              1.404              0.858
 Vibration     1          0.791              1.404              0.858

 Optimization completed.
    -- Stationary point found.
 Normal termination of Gaussian 09 at Sun Dec 06 20:39:15 2020.
